! Touchstone file exported from HFSS 2021.1.0
!        File:           C:/Users/JH218595/Documents/tresonator_window/CAD/Tresonator_window.aedt
!        Generated:      12:50:47  avr. 14, 2021
!        Design:         front_window
!        Project:        Tresonator_window
!        Setup:          Setup1
!        Solution:       Sweep
!
! Variables:
!        R_CEA = 0.01ohm
!        R_DUT = 0.1ohm
!
!Data is not renormalized
# GHz S MA
! Terminal data exported
! Port[1] = 1
! Port[2] = 2
0.04                           0.0058395428943256 67.8713713736455 0.999782139859587 -23.960536240327 0.999782139859586 -23.960536240327 0.00583753459871527 66.935444531018  
! Gamma         0.000168842235893273 0.83850691504305 0.000169011100031539 0.838507084091903 
! Port Impedance         19.8402177819102 -0.00388007784471302 19.8384673008428 -0.00388031762417777 
0.04005                        0.00584647376663055 67.8408494611248 0.999781894630926 -23.9904846698741 0.999781894630925 -23.990484669874 0.0058444654634761 66.9060086166595 
! Gamma         0.000168947572396975 0.839554943367828 0.00016911654195883 0.83955511252258 
! Port Impedance         19.8402153589233 -0.00387765409570628 19.8384648777058 -0.00387789372477528 
0.0401                         0.00585340325616394 67.8103296414254 0.999781649350708 -24.0204330972198 0.999781649350707 -24.0204330972198 0.00585139494419167 66.8765719587006 
! Gamma         0.000169052848549499 0.840602971620648 0.000169221923474578 0.840603140881228 
! Port Impedance         19.8402129404177 -0.00387523488228616 19.8384624590504 -0.00387547436123854 
0.04015                        0.00586033136115087 67.7798119033353 0.999781404019323 -24.0503815223827 0.999781404019321 -24.0503815223827 0.00585832303910019 66.8471345564679 
! Gamma         0.000169158064384813 0.841650999801696 0.000169327244612788 0.841651169168031 
! Port Impedance         19.84021052638   -0.00387282019003659 19.8384600448632 -0.0038730595191506 
0.0402                         0.00586725807981673 67.7492962357082 0.999781158637161 -24.0803299453811 0.999781158637159 -24.0803299453811 0.00586524974644002 66.8176964093011 
! Gamma         0.000169263219937469 0.842699027911155 0.000169432505408042 0.842699197383174 
! Port Impedance         19.8402081167972 -0.00387041000461078 19.838457635131  -0.00387064918416383 
0.04025                        0.00587418341038716 67.7187826274626 0.999780913204609 -24.1102783662333 0.999780913204608 -24.1102783662333 0.00587217506444974 66.7882575165527 
! Gamma         0.000169368315242592 0.843747055949208 0.000169537705895503 0.84374722552684 
! Port Impedance         19.8402057116559 -0.00386800431173075 19.8384552298407 -0.00386824334199937 
0.0403                         0.00588110735108808 67.6882710675819 0.999780667722055 -24.1402267849576 0.999780667722054 -24.1402267849576 0.00587909899136809 66.7588178775884 
! Gamma         0.000169473350335879 0.84479508391604 0.000169642846110901 0.844795253599213 
! Port Impedance         19.840203310943  -0.00386560309718683 19.8384528289791 -0.00386584197844672 
0.04035                        0.00588802990014568 67.657761545114  0.999780422189882 -24.1701752015724 0.999780422189881 -24.1701752015723 0.00588602152543401 66.7293774917868 
! Gamma         0.000169578325253592 0.845843111811832 0.000169747926090535 0.845843281600475 
! Port Impedance         19.8402009146455 -0.00386320634683723 19.8384504325332 -0.00386344507936323 
0.0404                         0.0058949510557864 67.6272540491706 0.999780176608473 -24.2001236160957 0.999780176608472 -24.2001236160957 0.00589294266488665 66.6999363585397 
! Gamma         0.000169683240032551 0.846891139636767 0.000169852945871262 0.846891309530809 
! Port Impedance         19.8401985227504 -0.00386081404660758 19.8384480404899 -0.00386105263067368 
0.04045                        0.00590187081623697 67.5967485689274 0.99977993097821 -24.2300720285459 0.999779930978209 -24.2300720285459 0.00589986240796531 66.6704944772514 
! Gamma         0.00016978809471013 0.847939167391025 0.000169957905490492 0.847939337390395 
! Port Impedance         19.8401961352446 -0.00385842618249043 19.8384456528363 -0.0038586646183698 
0.0405                         0.00590878917972438 67.5662450936233 0.999779685299472 -24.2600204389412 0.999779685299471 -24.2600204389411 0.00590678075290952 66.6410518473395 
! Gamma         0.000169892889324254 0.848987195074788 0.000170062804986187 0.848987365179415 
! Port Impedance         19.8401937521153 -0.00385604274054487 19.8384432695593 -0.00385628102850981 
0.04055                        0.00591570614447592 67.5357436125603 0.999779439572637 -24.2899688472996 0.999779439572635 -24.2899688472995 0.005913697697959 66.6116084682344 
! Gamma         0.000169997623913387 0.850035222688236 0.000170167644396851 0.85003539289805 
! Port Impedance         19.8401913733496 -0.00385366370689601 19.8384408906463 -0.00385390184721801 
0.0406                         0.00592262170871912 67.5052441151032 0.99977919379808 -24.3199172536393 0.999779193798079 -24.3199172536392 0.00592061324135364 66.5821643393792 
! Gamma         0.000170102298516534 0.851083250231548 0.000170272423761525 0.85108342054648 
! Port Impedance         19.8401889989347 -0.00385128906773458 19.8384385160843 -0.00385152706068428 
0.04065                        0.00592953587068181 67.4747465906791 0.999778947976177 -24.3498656579783 0.999778947976175 -24.3498656579783 0.00592752738133357 66.5527194602301 
! Gamma         0.000170206913173231 0.852131277704905 0.000170377143119786 0.852131448124883 
! Port Impedance         19.8401866288577 -0.00384891880931646 19.8384361458605 -0.0038491566551637 
0.0407                         0.00593644862859209 67.4442510287773 0.999778702107299 -24.3798140603348 0.999778702107298 -24.3798140603348 0.00593444011613909 66.5232738302559 
! Gamma         0.000170311467923542 0.853179305108483 0.000170481802511737 0.853179475633438 
! Port Impedance         19.8401842631061 -0.00384655291796229 19.8384337799623 -0.00384679061697605 
0.04075                        0.00594335998067834 67.4137574189485 0.999778456191818 -24.4097624607268 0.999778456191817 -24.4097624607267 0.0059413514440107 66.4938274489383 
! Gamma         0.000170415962808052 0.854227332442463 0.000170586401978003 0.854227503072325 
! Port Impedance         19.840181901667  -0.00384419138005695 19.838431418377  -0.00384442893250544 
0.0408                         0.00595026992516921 67.3832657508054 0.999778210230103 -24.4397108591721 0.999778210230102 -24.4397108591721 0.00594826136318912 66.4643803157717 
! Gamma         0.000170520397867862 0.85527535970702 0.000170690941559727 0.855275530441719 
! Port Impedance         19.8401795445279 -0.00384183418204925 19.8384290610919 -0.00384207158819983 
0.04085                        0.00595717846029365 67.3527760140213 0.999777964222522 -24.4696592556889 0.999777964222521 -24.4696592556888 0.00595516987191526 66.4349324302635 
! Gamma         0.000170624773144586 0.856323386902332 0.000170795421298563 0.8563235577418  
! Port Impedance         19.8401771916763 -0.00383948131045138 19.8384267080945 -0.0038397185705706 
0.0409                         0.00596408558428087 67.3222881983304 0.999777718169441 -24.4996076502949 0.999777718169439 -24.4996076502949 0.00596207696843025 66.4054837919335 
! Gamma         0.000170729088680344 0.857371414028576 0.000170899841236672 0.857371584972743 
! Port Impedance         19.8401748430995 -0.00383713275183857 19.8384243593722 -0.00383736986619219 
0.04095                        0.0059709912953604 67.2918022935276 0.999777472071223 -24.5295560430081 0.999777472071222 -24.5295560430081 0.00596898265097539 66.3760344003145 
! Gamma         0.000170833344517756 0.858419441085927 0.000171004201416718 0.858419612134724 
! Port Impedance         19.8401724987852 -0.00383478849284865 19.8384220149127 -0.00383502546170161 
0.041                          0.00597789559176201 67.2613182894678 0.999777225928232 -24.5595044338464 0.999777225928231 -24.5595044338464 0.00597588691779224 66.3465842549517 
! Gamma         0.000170937540699939 0.85946746807456 0.00017110850188186 0.859467639227919 
! Port Impedance         19.8401701587208 -0.00383244852018161 19.8384196747034 -0.00383268534379805 
0.04105                        0.00598479847171578 67.2308361760658 0.999776979740828 -24.5894528228275 0.999776979740827 -24.5894528228275 0.00598278976712253 66.3171333554032 
! Gamma         0.000171041677270501 0.860515494994651 0.000171212742675749 0.860515666252502 
! Port Impedance         19.8401678228941 -0.00383011282059921 19.838417338732  -0.00383034949924248 
0.0411                         0.00599169993345209 67.2003559432959 0.99977673350937 -24.6194012099692 0.999776733509369 -24.6194012099692 0.00598969119720821 66.2876817012396 
! Gamma         0.000171145754273536 0.861563521846373 0.000171316923842521 0.861563693208649 
! Port Impedance         19.8401654912927 -0.00382778138092457 19.8384150069862 -0.00382801791485722 
0.04115                        0.00599859997520158 67.1698775811916 0.999776487234217 -24.6493495952893 0.999776487234215 -24.6493495952893 0.00599659120629146 66.2582292920442 
! Gamma         0.000171249771753616 0.862611548629901 0.000171421045426797 0.862611720096532 
! Port Impedance         19.8401631639043 -0.00382545418804176 19.8384126794536 -0.00382569057752556 
0.0412                         0.0060054985951952 67.1394010798455 0.999776240915722 -24.6792979788055 0.999776240915721 -24.6792979788055 0.00600348979261464 66.2287761274131 
! Gamma         0.000171353729755793 0.863659575345406 0.000171525107473669 0.863659746916325 
! Port Impedance         19.8401608407166 -0.0038231312288954 19.838410356122  -0.00382336747419132 
0.04125                        0.00601239579166417 67.1089264294088 0.999775994554242 -24.7092463605354 0.99977599455424 -24.7092463605354 0.00601038695442036 66.1993222069545 
! Gamma         0.000171457628325587 0.864707601993062 0.000171629110028704 0.8647077736682  
! Port Impedance         19.8401585217175 -0.00382081249049025 19.8384080369793 -0.00382104859185849 
0.0413                         0.00601929156284004 67.078453620091  0.999775748150127 -24.7391947404967 0.999775748150126 -24.7391947404967 0.00601728268995143 66.1698675302895 
! Gamma         0.000171561467508985 0.86575562857304 0.000171733053137935 0.86575580035233 
! Port Impedance         19.8401562068949 -0.00381849795989082 19.8384057220133 -0.00381873391759079 
0.04135                        0.00602618590695462 67.0479826421596 0.999775501703729 -24.769143118707 0.999775501703728 -24.769143118707 0.00602417699745086 66.1404120970518 
! Gamma         0.000171665247352435 0.866803655085512 0.000171836936847855 0.866803826968887 
! Port Impedance         19.8401538962367 -0.00381618762422099 19.838403411212  -0.00381642343851133 
0.0414                         0.00603307882224002 67.01751348594   0.999775255215397 -24.7990914951838 0.999775255215396 -24.7990914951838 0.00603106987516192 66.1109559068874 
! Gamma         0.000171768967902841 0.867851681530648 0.000171940761205415 0.86785185351804 
! Port Impedance         19.8401515897307 -0.00381388147066361 19.8384011045631 -0.00381411714180217 
0.04145                        0.00603997030692866 66.987046141815  0.999775008685477 -24.8290398699447 0.999775008685476 -24.8290398699447 0.00603796132132807 66.081498959455  
! Gamma         0.000171872629207557 0.868899707908619 0.000172044526258016 0.86889987999996 
! Port Impedance         19.8401492873651 -0.00381157948646009 19.8383988020549 -0.00381181501470397 
0.0415                         0.00604686035925324 66.9565806002246 0.999774762114316 -24.8589882430072 0.999774762114315 -24.8589882430071 0.00604485133419299 66.0520412544256 
! Gamma         0.000171976231314385 0.869947734219594 0.000172148232053508 0.869947906414818 
! Port Impedance         19.8401469891278 -0.00380928165891006 19.8383965036753 -0.0038095170445156 
0.04155                        0.00605374897744678 66.9261168516657 0.999774515502257 -24.8889366143886 0.999774515502256 -24.8889366143886 0.00605173991200061 66.0225827914829 
! Gamma         0.000172079774271567 0.870995760463743 0.00017225187864018 0.870995932762783 
! Port Impedance         19.8401446950069 -0.00380698797537098 19.8383942094123 -0.00380722321859374 
0.0416                         0.00606063615974257 66.8956548866916 0.999774268849642 -24.9188849841064 0.999774268849641 -24.9188849841064 0.00605862705299504 65.9931235703227 
! Gamma         0.000172183258127784 0.872043786641233 0.000172355466066762 0.872043959044022 
! Port Impedance         19.8401424049907 -0.00380469842325773 19.8383919192542 -0.00380493352435251 
0.04165                        0.00606752190437423 66.8651946959123 0.999774022156812 -24.948833352178 0.999774022156811 -24.948833352178 0.00606551275542068 65.9636635906536 
! Gamma         0.000172286682932146 0.873091812752233 0.000172458994382413 0.873091985258704 
! Port Impedance         19.8401401190672 -0.00380241299004226 19.8383896331891 -0.00380264794926312 
0.0417                         0.00607440620957566 66.8347362699937 0.999773775424106 -24.9787817186207 0.999773775424105 -24.9787817186207 0.00607239701752209 65.9342028521963 
! Gamma         0.000172390048734193 0.87413983879691 0.000172562463636721 0.874140011406997 
! Port Impedance         19.8401378372246 -0.00380013166325325 19.8383873512053 -0.00380036648085348 
0.04175                        0.00608128907358109 66.8042795996573 0.999773528651861 -25.0087300834518 0.99977352865186 -25.0087300834518 0.0060792798375441 65.9047413546842 
! Gamma         0.000172493355583886 0.875187864775431 0.000172665873879698 0.875188037489067 
! Port Impedance         19.8401355594514 -0.00379785443047566 19.8383850732909 -0.00379808910670781 
0.0418                         0.00608817049462502 66.7738246756802 0.999773281840411 -25.0386784466885 0.99977328184041 -25.0386784466885 0.00608616121373177 65.8752790978628 
! Gamma         0.000172596603531605 0.876235890687962 0.000172769225161773 0.876236063505081 
! Port Impedance         19.8401332857357 -0.00379558127935046 19.8383827994344 -0.00379581581446633 
0.04185                        0.00609505047094227 66.7433714888949 0.999773034990092 -25.0686268083481 0.999773034990091 -25.0686268083481 0.00609304114433036 65.84581608149   
! Gamma         0.000172699792628142 0.877283916534668 0.000172872517533788 0.877284089455205 
! Port Impedance         19.8401310160659 -0.00379331219757419 19.8383805296241 -0.00379354659182485 
0.0419                         0.00610192900076799 66.7129200301887 0.999772788101234 -25.0985751684477 0.999772788101233 -25.0985751684477 0.0060999196275854 65.8163523053362 
! Gamma         0.000172802922924699 0.878331942315715 0.000172975751046997 0.878332115339604 
! Port Impedance         19.8401287504305 -0.00379104717289868 19.8383782638484 -0.00379128142653443 
0.04195                        0.00610880608233761 66.6824702905034 0.999772541174168 -25.1285235270045 0.999772541174166 -25.1285235270044 0.00610679666174264 65.7868877691839 
! Gamma         0.00017290599447288 0.879379968031267 0.000173078925753055 0.879380141158442 
! Port Impedance         19.8401264888179 -0.00378878619313059 19.8383760020957 -0.00378902030640102 
0.042                          0.00611568171388687 66.6520222608355 0.999772294209222 -25.1584718840355 0.999772294209221 -25.1584718840354 0.00611367224504805 65.7574224728281 
! Gamma         0.000173009007324691 0.880427993681487 0.00017318204170402 0.880428166911883 
! Port Impedance         19.8401242312166 -0.00378652924613116 19.8383737443546 -0.00378676321928511 
0.04205                        0.00612255589365184 66.6215759322355 0.999772047206724 -25.1884202395577 0.999772047206722 -25.1884202395577 0.00612054637574787 65.7279564160759 
! Gamma         0.000173111961532531 0.88147601926654 0.000173285098952342 0.881476192600091 
! Port Impedance         19.8401219776151 -0.0037842763198158 19.8383714906135 -0.0037845101531014 
0.0421                         0.00612942861986888 66.5911312958078 0.999771800166997 -25.2183685935883 0.999771800166996 -25.2183685935883 0.00612741905208854 65.6984895987468 
! Gamma         0.00017321485714919 0.882524044786588 0.000173388097550865 0.88252421822323 
! Port Impedance         19.840119728002  -0.00378202740215375 19.838369240861  -0.00378226109581838 
0.04215                        0.00613629989077469 66.5606883427105 0.999771553090367 -25.2483169461441 0.999771553090366 -25.2483169461441 0.00613429027231676 65.6690220206725 
! Gamma         0.000173317694227845 0.883572070241793 0.000173491037552817 0.88357224378146 
! Port Impedance         19.8401174823659 -0.00377978248116777 19.8383669950858 -0.0037800160354581 
0.0422                         0.00614316970460624 66.5302470641549 0.999771305977155 -25.2782652972421 0.999771305977154 -25.278265297242 0.00614116003467948 65.6395536816969 
! Gamma         0.000173420472822052 0.884620095632316 0.000173593919011808 0.884620269274944 
! Port Impedance         19.8401152406954 -0.00377754154493375 19.8383647532766 -0.00377777496009571 
0.04225                        0.00615003805960087 66.4998074514056 0.99977105882768 -25.3082136468991 0.999771058827679 -25.308213646899 0.00614802833742388 65.6100845816762 
! Gamma         0.000173523192985747 0.885668120958319 0.000173696741981828 0.885668294703843 
! Port Impedance         19.8401130029794 -0.00377530458158038 19.838362515422  -0.00377553785785921 
0.0423                         0.00615690495399619 66.4693694957798 0.999770811642261 -25.3381619951319 0.99977081164226 -25.3381619951319 0.00615489517879739 65.5806147204787 
! Gamma         0.000173625854773235 0.886716146219963 0.000173799506517237 0.886716320068317 
! Port Impedance         19.8401107692065 -0.00377307157928887 19.8383602815108 -0.00377330471692907 
0.04235                        0.00616377038603016 66.4389331886476 0.999770564421215 -25.3681103419575 0.999770564421214 -25.3681103419575 0.00616176055704767 65.5511440979849 
! Gamma         0.000173728458239194 0.887764171417405 0.000173902212672765 0.887764345368528 
! Port Impedance         19.8401085393656 -0.00377084252629253 19.8383580515317 -0.00377107552553791 
0.0424                         0.00617063435394104 66.408498521431  0.999770317164856 -25.3980586873924 0.999770317164855 -25.3980586873924 0.00616862447042264 65.5216727140876 
! Gamma         0.000173831003438662 0.888812196550807 0.000174004860503506 0.888812370604633 
! Port Impedance         19.8401063134454 -0.0037686174108765 19.8383558254737 -0.00376885027197014 
0.04245                        0.00617749685596741 66.3780654856046 0.999770069873498 -25.4280070314535 0.999770069873497 -25.4280070314535 0.00617548691717047 65.4922005686915 
! Gamma         0.000173933490427037 0.889860221620327 0.000174107450064914 0.889860395776791 
! Port Impedance         19.8401040914348 -0.00376639622137741 19.8383536033255 -0.0037666289445617 
0.0425                         0.00618435789034819 66.3476340726945 0.999769822547452 -25.4579553741573 0.999769822547451 -25.4579553741573 0.00618234789553957 65.4627276617136 
! Gamma         0.000174035919260074 0.890908246626122 0.000174209981412797 0.890908420885162 
! Port Impedance         19.8401018733229 -0.00376417894618304 19.8383513850762 -0.00376441153169965 
0.04255                        0.00619121745532261 66.3172042742784 0.999769575187029 -25.4879037155206 0.999769575187028 -25.4879037155205 0.00618920740377861 65.433253993083  
! Gamma         0.000174138289993878 0.891956271568351 0.000174312454603318 0.891956445929903 
! Port Impedance         19.8400996590984 -0.003761965573732 19.8383491707146 -0.00376219802182191 
0.0426                         0.00619807554913021 66.2867760819855 0.999769327792535 -25.5178520555597 0.999769327792534 -25.5178520555597 0.00619606544013649 65.403779562741  
! Gamma         0.0001742406026849 0.89300429644717 0.000174414869692983 0.89300447091117 
! Port Impedance         19.8400974487504 -0.00375975609251343 19.8383469602297 -0.00375998840341692 
0.04265                        0.00620493217001088 66.256349487496  0.999769080364278 -25.5478003942913 0.999769080364277 -25.5478003942913 0.0062029220028624 65.3743043706407 
! Gamma         0.000174342857389934 0.894052321262736 0.000174517226738643 0.89405249582912 
! Port Impedance         19.8400952422681 -0.00375755049106664 19.8383447536107 -0.00375778266502331 
0.0427                         0.00621178731620483 66.225924482541  0.999768832902562 -25.5777487317319 0.999768832902562 -25.5777487317319 0.00620977709020575 65.3448284167475 
! Gamma         0.000174445054166113 0.895100346015204 0.000174619525797488 0.895100520683909 
! Port Impedance         19.8400930396403 -0.00375534875798086 19.8383425508465 -0.0037555807952296 
0.04275                        0.00621864098595258 66.1955010589023 0.999768585407691 -25.6076970678978 0.99976858540769 -25.6076970678978 0.00621663070041622 65.3153517010389 
! Gamma         0.000174547193070903 0.896148370704729 0.000174721766927041 0.896148545475693 
! Port Impedance         19.8400908408563 -0.00375315088189486 19.8383403519264 -0.00375338278267388 
0.0428                         0.006225493177495 66.1650792084118 0.999768337879965 -25.6376454028055 0.999768337879965 -25.6376454028055 0.00622348283174375 65.2858742235043 
! Gamma         0.000174649274162101 0.897196395331466 0.000174823950185156 0.897196570204626 
! Port Impedance         19.8400886459052 -0.00375095685149668 19.8383381568394 -0.00375118861604349 
0.04285                        0.00623234388907327 66.1346589229519 0.999768090319685 -25.6675937364713 0.999768090319684 -25.6675937364712 0.00623033348243853 65.2563959841451 
! Gamma         0.000174751297497828 0.89824441989557 0.000174926075630013 0.898244594870863 
! Port Impedance         19.8400864547763 -0.0037487666555233 19.8383359655747 -0.00374899828407474 
0.0429                         0.00623919311892892 66.1042401944546 0.999767842727147 -25.6975420689114 0.999767842727146 -25.6975420689114 0.00623718265075102 65.2269169829749 
! Gamma         0.000174853263136529 0.899292444397194 0.000175028143320113 0.899292619474556 
! Port Impedance         19.8400842674587 -0.00374658028276037 19.8383337781217 -0.0037468117755526 
0.04295                        0.0062460408653038 66.0738230149019 0.999767595102648 -25.7274904001422 0.999767595102647 -25.7274904001422 0.00624403033493193 65.1974372200191 
! Gamma         0.000174955171136965 0.900340468836489 0.000175130153314278 0.90034064401586 
! Port Impedance         19.8400820839418 -0.00374439772204184 19.8383315944696 -0.00374462907931035 
0.043                          0.00625288712644009 66.0434073763249 0.999767347446483 -25.7574387301798 0.999767347446482 -25.7574387301797 0.00625087653323224 65.1679566953152 
! Gamma         0.00017505702155821 0.90138849321361 0.00017523210567164 0.901388668494926 
! Port Impedance         19.8400799042149 -0.00374221896224976 19.8383294146076 -0.00374245018422934 
0.04305                        0.00625973190058032 66.0129932708042 0.999767099758945 -25.7873870590403 0.999767099758944 -25.7873870590403 0.00625772124390319 65.1384754089126 
! Gamma         0.000175158814459651 0.902436517528706 0.000175334000451643 0.902436692911906 
! Port Impedance         19.8400777282672 -0.00374004399231387 19.8383272385253 -0.00374027507923866 
0.0431                         0.00626657518596734 65.9825806904693 0.999766852040324 -25.8173353867399 0.999766852040323 -25.8173353867399 0.00626456446519628 65.1089933608727 
! Gamma         0.000175260549900975 0.903484541781931 0.000175435837714037 0.903484717266952 
! Port Impedance         19.8400755560884 -0.00373787280121139 19.8383250662119 -0.00373810375331486 
0.04315                        0.00627341698084434 65.9521696274983 0.999766604290909 -25.8472837132945 0.999766604290908 -25.8472837132945 0.00627140619536329 65.0795105512689 
! Gamma         0.000175362227942176 0.904532565973433 0.000175537617518873 0.904532741560214 
! Port Impedance         19.8400733876676 -0.00373570537796668 19.8383228976569 -0.00373593619548163 
0.0432                         0.00628025728345485 65.9217600741182 0.999766356510989 -25.8772320387203 0.999766356510988 -25.8772320387203 0.00627824643265624 65.0500269801864 
! Gamma         0.000175463848643541 0.905580590103363 0.000175639339926499 0.905580765791842 
! Port Impedance         19.8400712229946 -0.00373354171165098 19.8383207328498 -0.00373377239480954 
0.04325                        0.00628709609204275 65.8913520226039 0.999766108700849 -25.9071803630332 0.999766108700849 -25.9071803630332 0.00628508517532746 65.0205426477224 
! Gamma         0.000175565412065655 0.906628614171871 0.00017574100499756 0.906628789961987 
! Port Impedance         19.8400690620587 -0.00373138179138209 19.8383185717801 -0.00373161234041573 
0.0433                         0.00629393340485224 65.8609454652786 0.999765860860774 -25.937128686249 0.999765860860774 -25.937128686249 0.00629192242162952 64.991057553986  
! Gamma         0.000175666918269388 0.907676638179105 0.000175842612792988 0.907676814070796 
! Port Impedance         19.8400669048495 -0.00372922560632411 19.8383164144373 -0.00372945602146365 
0.04335                        0.00630076922012786 65.8305403945136 0.999765612991046 -25.9670770083836 0.999765612991046 -25.9670770083836 0.00629875816981526 64.9615716990981 
! Gamma         0.000175768367315901 0.908724662125213 0.000175944163374002 0.908724838118418 
! Port Impedance         19.8400647513567 -0.00372707314568713 19.8383142608111 -0.00372730342716274 
0.0434                         0.00630760353611452 65.8001368027273 0.999765365091946 -25.9970253294528 0.999765365091945 -25.9970253294528 0.00630559241813781 64.9320850831916 
! Gamma         0.000175869759266631 0.909772686010343 0.000176045656802104 0.909772862105   
! Port Impedance         19.8400626015698 -0.00372492439872698 19.8383121108911 -0.00372515454676815 
0.04345                        0.00631443635105744 65.7697346823861 0.999765117163753 -26.0269736494724 0.999765117163752 -26.0269736494723 0.00631242516485055 64.9025977064111 
! Gamma         0.0001759710941833 0.910820709834642 0.000176147093139074 0.910820886030691 
! Port Impedance         19.8400604554785 -0.00372277935474492 19.8383099646669 -0.00372300936958052 
0.0435                         0.00632126766320221 65.7393340260033 0.999764869206744 -26.056921968458 0.999764869206744 -26.056921968458 0.00631925640820717 64.8731095689133 
! Gamma         0.000176072372127898 0.911868733598257 0.000176248472446965 0.911868909895637 
! Port Impedance         19.8400583130726 -0.00372063800308738 19.8383078221283 -0.00372086788494562 
0.04355                        0.00632809747079476 65.7089348261393 0.999764621221196 -26.0868702864253 0.999764621221195 -26.0868702864253 0.0063260861464616 64.8436206708665 
! Gamma         0.000176173593162689 0.912916757301333 0.000176349794788104 0.912916933699984 
! Port Impedance         19.8400561743417 -0.00371850033314569 19.838305683265  -0.00371873008225412 
0.0436                         0.00633492577208134 65.6785370754013 0.999764373207381 -26.1168186033899 0.99976437320738 -26.1168186033899 0.00633291437786807 64.8141310124509 
! Gamma         0.000176274757350203 0.913964780944015 0.000176451060225082 0.913964957443876 
! Port Impedance         19.8400540392757 -0.00371636633435577 19.8383035480668 -0.00371659595094133 
0.04365                        0.0063417525653086 65.648140766443  0.999764125165573 -26.1467669193674 0.999764125165572 -26.1467669193674 0.00633974110068108 64.7846405938585 
! Gamma         0.000176375864753234 0.915012804526449 0.000176552268820756 0.91501298112746 
! Port Impedance         19.8400519078643 -0.00371423599619792 19.8383014165234 -0.00371446548048688 
0.0437                         0.00634857784872348 65.6177458919647 0.999763877096042 -26.1767152343732 0.999763877096041 -26.1767152343731 0.00634656631315541 64.7551494152931 
! Gamma         0.000176476915434833 0.916060828048779 0.00017665342063824 0.916061004750879 
! Port Impedance         19.8400497800975 -0.00371210930819649 19.8382992886249 -0.0037123386604145 
0.04375                        0.00635540162057332 65.5873524447126 0.999763628999056 -26.2066635484227 0.999763628999056 -26.2066635484227 0.00635339001354613 64.7256574769705 
! Gamma         0.000176577909458308 0.917108851511148 0.000176754515740905 0.917109028314277 
! Port Impedance         19.8400476559651 -0.00370998625991965 19.8382971643609 -0.00371021548029172 
0.0438                         0.00636222387910578 65.5569604174791 0.999763380874884 -26.2366118615314 0.999763380874883 -26.2366118615314 0.00636021220010857 64.6961647791178 
! Gamma         0.000176678846887219 0.918156874913698 0.000176855554192374 0.918157051817797 
! Port Impedance         19.8400455354571 -0.00370786684097913 19.8382950437216 -0.00370809592972963 
0.04385                        0.00636904462256888 65.5265698031021 0.99976313272379 -26.2665601737147 0.999763132723789 -26.2665601737147 0.00636703287109838 64.6666713219743 
! Gamma         0.000176779727785375 0.919204898256573 0.000176956536056519 0.919205075261582 
! Port Impedance         19.8400434185634 -0.00370575104102991 19.8382929266968 -0.0037059799983826 
0.0439                         0.00637586384921101 65.4961805944653 0.999762884546038 -26.2965084849877 0.999762884546038 -26.2965084849876 0.00637385202477146 64.6371771057909 
! Gamma         0.000176880552216828 0.920252921539915 0.000177057461397457 0.920253098645773 